/*--------------------------------*- C++ -*----------------------------------*\
| =========                 |                                                 |
| \\      /  F ield         | foam-extend: Open Source CFD                    |
|  \\    /   O peration     | Version:     3.1                                |
|   \\  /    A nd           | Web:         http://www.extend-project.de       |
|    \\/     M anipulation  |                                                 |
\*---------------------------------------------------------------------------*/
FoamFile
{
    version     2.0;
    format      ascii;
    class       volScalarField;
    location    "230";
    object      initEffSigmazz;
}
// * * * * * * * * * * * * * * * * * * * * * * * * * * * * * * * * * * * * * //

dimensions      [1 -1 -2 0 0 0 0];

internalField   nonuniform List<scalar> 
34650
(
-95697.9
-168890
-245579
-322607
-400051
-477985
-556423
-635331
-714651
-794323
-874290
-954502
-1.03491e+06
-1.11549e+06
-1.19619e+06
-1.27698e+06
-1.35785e+06
-1.43876e+06
-1.51968e+06
-1.60059e+06
-1.68145e+06
-1.76223e+06
-1.84291e+06
-1.92342e+06
-2.00373e+06
-2.0838e+06
-2.16356e+06
-2.24296e+06
-2.32195e+06
-2.40045e+06
-2.47842e+06
-2.55578e+06
-2.6325e+06
-2.70854e+06
-2.7839e+06
-2.85863e+06
-2.93284e+06
-3.00677e+06
-3.08079e+06
-3.15553e+06
-3.23189e+06
-3.3112e+06
-3.39524e+06
-3.48609e+06
-3.58543e+06
-3.69191e+06
-3.79237e+06
-3.8285e+06
-3.54624e+06
-1.66273e+06
-95864.8
-168601
-245168
-321964
-399141
-476792
-554934
-633530
-712523
-791846
-871443
-951256
-1.03124e+06
-1.11134e+06
-1.19152e+06
-1.27176e+06
-1.352e+06
-1.43222e+06
-1.51238e+06
-1.59244e+06
-1.67235e+06
-1.75208e+06
-1.83156e+06
-1.91073e+06
-1.98953e+06
-2.06788e+06
-2.1457e+06
-2.22288e+06
-2.29933e+06
-2.37493e+06
-2.44955e+06
-2.52306e+06
-2.5953e+06
-2.66613e+06
-2.73541e+06
-2.803e+06
-2.86879e+06
-2.93273e+06
-2.99487e+06
-3.05532e+06
-3.11441e+06
-3.17259e+06
-3.23036e+06
-3.28783e+06
-3.34339e+06
-3.39e+06
-3.4049e+06
-3.31788e+06
-2.90052e+06
-1.31933e+06
-96057.1
-168325
-244826
-321443
-398410
-475837
-553745
-632095
-710826
-789874
-869175
-948669
-1.0283e+06
-1.10803e+06
-1.1878e+06
-1.26758e+06
-1.34733e+06
-1.427e+06
-1.50654e+06
-1.58591e+06
-1.66506e+06
-1.74392e+06
-1.82243e+06
-1.90051e+06
-1.97807e+06
-2.05502e+06
-2.13123e+06
-2.20659e+06
-2.28094e+06
-2.35412e+06
-2.42595e+06
-2.49622e+06
-2.56469e+06
-2.63112e+06
-2.69521e+06
-2.75667e+06
-2.81519e+06
-2.87045e+06
-2.92216e+06
-2.97002e+06
-3.01379e+06
-3.05325e+06
-3.08802e+06
-3.11717e+06
-3.13804e+06
-3.14324e+06
-3.11251e+06
-2.98843e+06
-2.58805e+06
-1.16998e+06
-96181
-168158
-244614
-321115
-397945
-475230
-552989
-631182
-709749
-788622
-867734
-947026
-1.02644e+06
-1.10593e+06
-1.18544e+06
-1.26493e+06
-1.34435e+06
-1.42367e+06
-1.50282e+06
-1.58175e+06
-1.6604e+06
-1.73871e+06
-1.8166e+06
-1.89397e+06
-1.97073e+06
-2.04677e+06
-2.12194e+06
-2.19611e+06
-2.26909e+06
-2.3407e+06
-2.4107e+06
-2.47884e+06
-2.54483e+06
-2.60834e+06
-2.66898e+06
-2.72636e+06
-2.78001e+06
-2.82943e+06
-2.87408e+06
-2.9134e+06
-2.94679e+06
-2.97362e+06
-2.99314e+06
-3.00421e+06
-3.00471e+06
-2.98962e+06
-2.9451e+06
-2.82656e+06
-2.468e+06
-1.12341e+06
-96223
-168102
-244542
-321004
-397786
-475022
-552729
-630869
-709380
-788193
-867241
-946463
-1.0258e+06
-1.10521e+06
-1.18463e+06
-1.26402e+06
-1.34333e+06
-1.42253e+06
-1.50154e+06
-1.58032e+06
-1.65881e+06
-1.73692e+06
-1.8146e+06
-1.89173e+06
-1.96821e+06
-2.04393e+06
-2.11874e+06
-2.1925e+06
-2.26501e+06
-2.33606e+06
-2.40543e+06
-2.47283e+06
-2.53795e+06
-2.60044e+06
-2.65988e+06
-2.71582e+06
-2.76776e+06
-2.81512e+06
-2.85728e+06
-2.89358e+06
-2.9233e+06
-2.9457e+06
-2.95992e+06
-2.96488e+06
-2.95887e+06
-2.93822e+06
-2.89197e+06
-2.7799e+06
-2.43812e+06
-1.11336e+06
-96180.7
-168157
-244614
-321115
-397946
-475231
-552990
-631182
-709749
-788624
-867736
-947027
-1.02644e+06
-1.10593e+06
-1.18544e+06
-1.26493e+06
-1.34435e+06
-1.42367e+06
-1.50282e+06
-1.58175e+06
-1.6604e+06
-1.73872e+06
-1.8166e+06
-1.89398e+06
-1.97074e+06
-2.04677e+06
-2.12195e+06
-2.19611e+06
-2.26909e+06
-2.3407e+06
-2.4107e+06
-2.47884e+06
-2.54483e+06
-2.60834e+06
-2.66899e+06
-2.72636e+06
-2.78001e+06
-2.82943e+06
-2.87408e+06
-2.9134e+06
-2.94679e+06
-2.97362e+06
-2.99314e+06
-3.00422e+06
-3.00471e+06
-2.98962e+06
-2.9451e+06
-2.82656e+06
-2.468e+06
-1.12342e+06
-96057.2
-168324
-244824
-321443
-398410
-475839
-553746
-632095
-710827
-789877
-869178
-948671
-1.0283e+06
-1.10803e+06
-1.1878e+06
-1.26758e+06
-1.34733e+06
-1.427e+06
-1.50654e+06
-1.58591e+06
-1.66506e+06
-1.74393e+06
-1.82244e+06
-1.90052e+06
-1.97808e+06
-2.05502e+06
-2.13123e+06
-2.20659e+06
-2.28094e+06
-2.35412e+06
-2.42595e+06
-2.49622e+06
-2.56469e+06
-2.63112e+06
-2.69521e+06
-2.75667e+06
-2.81519e+06
-2.87046e+06
-2.92216e+06
-2.97001e+06
-3.01379e+06
-3.05325e+06
-3.08803e+06
-3.11718e+06
-3.13805e+06
-3.14324e+06
-3.11251e+06
-2.98843e+06
-2.58804e+06
-1.16998e+06
-95864.8
-168599
-245167
-321963
-399142
-476794
-554936
-633531
-712523
-791850
-871447
-951259
-1.03124e+06
-1.11134e+06
-1.19152e+06
-1.27176e+06
-1.352e+06
-1.43223e+06
-1.51239e+06
-1.59244e+06
-1.67236e+06
-1.75209e+06
-1.83156e+06
-1.91074e+06
-1.98953e+06
-2.06788e+06
-2.1457e+06
-2.22289e+06
-2.29934e+06
-2.37493e+06
-2.44955e+06
-2.52306e+06
-2.5953e+06
-2.66614e+06
-2.73541e+06
-2.803e+06
-2.86879e+06
-2.93274e+06
-2.99487e+06
-3.05532e+06
-3.11441e+06
-3.17259e+06
-3.23036e+06
-3.28784e+06
-3.3434e+06
-3.39e+06
-3.4049e+06
-3.31787e+06
-2.90051e+06
-1.31933e+06
-95698
-168890
-245578
-322606
-400052
-477987
-556425
-635332
-714652
-794326
-874294
-954506
-1.03492e+06
-1.11549e+06
-1.19619e+06
-1.27698e+06
-1.35785e+06
-1.43876e+06
-1.51968e+06
-1.60059e+06
-1.68145e+06
-1.76224e+06
-1.84291e+06
-1.92342e+06
-2.00374e+06
-2.0838e+06
-2.16356e+06
-2.24297e+06
-2.32195e+06
-2.40045e+06
-2.47842e+06
-2.55579e+06
-2.6325e+06
-2.70854e+06
-2.7839e+06
-2.85863e+06
-2.93284e+06
-3.00677e+06
-3.08079e+06
-3.15553e+06
-3.23189e+06
-3.31121e+06
-3.39525e+06
-3.4861e+06
-3.58544e+06
-3.69192e+06
-3.79236e+06
-3.82849e+06
-3.54624e+06
-1.66273e+06
-95864.2
-168600
-245168
-321964
-399141
-476792
-554933
-633530
-712522
-791846
-871443
-951255
-1.03123e+06
-1.11134e+06
-1.19152e+06
-1.27176e+06
-1.352e+06
-1.43222e+06
-1.51238e+06
-1.59244e+06
-1.67235e+06
-1.75208e+06
-1.83156e+06
-1.91073e+06
-1.98953e+06
-2.06788e+06
-2.1457e+06
-2.22288e+06
-2.29933e+06
-2.37493e+06
-2.44955e+06
-2.52306e+06
-2.5953e+06
-2.66613e+06
-2.73541e+06
-2.80299e+06
-2.86879e+06
-2.93273e+06
-2.99487e+06
-3.05532e+06
-3.11441e+06
-3.17258e+06
-3.23035e+06
-3.28783e+06
-3.34339e+06
-3.39e+06
-3.4049e+06
-3.31789e+06
-2.90053e+06
-1.31933e+06
-96111
-168195
-244640
-321209
-398104
-475443
-553253
-631501
-710126
-789059
-868237
-947599
-1.02709e+06
-1.10666e+06
-1.18626e+06
-1.26585e+06
-1.34538e+06
-1.42482e+06
-1.5041e+06
-1.58318e+06
-1.66199e+06
-1.74048e+06
-1.81857e+06
-1.89617e+06
-1.97319e+06
-2.0495e+06
-2.125e+06
-2.19953e+06
-2.27293e+06
-2.34501e+06
-2.41555e+06
-2.48431e+06
-2.55102e+06
-2.61535e+06
-2.67696e+06
-2.73545e+06
-2.7904e+06
-2.84134e+06
-2.88775e+06
-2.92905e+06
-2.96455e+06
-2.99332e+06
-3.01382e+06
-3.02295e+06
-3.01388e+06
-2.97068e+06
-2.85585e+06
-2.58248e+06
-1.96807e+06
-856417
-96339.6
-167828
-244223
-320602
-397258
-474339
-551878
-629841
-708165
-786779
-865614
-944607
-1.0237e+06
-1.10283e+06
-1.18195e+06
-1.261e+06
-1.33995e+06
-1.41873e+06
-1.49728e+06
-1.57554e+06
-1.65344e+06
-1.73089e+06
-1.80781e+06
-1.88409e+06
-1.95959e+06
-2.03419e+06
-2.10772e+06
-2.17998e+06
-2.25076e+06
-2.3198e+06
-2.38681e+06
-2.45144e+06
-2.51329e+06
-2.57188e+06
-2.62668e+06
-2.67704e+06
-2.72222e+06
-2.76134e+06
-2.79334e+06
-2.81697e+06
-2.83062e+06
-2.83219e+06
-2.81859e+06
-2.78488e+06
-2.72224e+06
-2.61373e+06
-2.42557e+06
-2.09203e+06
-1.5065e+06
-658210
-96496.9
-167596
-243963
-320216
-396714
-473628
-550992
-628772
-706902
-785311
-863926
-942679
-1.02151e+06
-1.10035e+06
-1.17916e+06
-1.25787e+06
-1.33644e+06
-1.41479e+06
-1.49287e+06
-1.5706e+06
-1.64789e+06
-1.72467e+06
-1.80083e+06
-1.87623e+06
-1.95074e+06
-2.0242e+06
-2.09642e+06
-2.16718e+06
-2.23622e+06
-2.30324e+06
-2.36788e+06
-2.42974e+06
-2.48832e+06
-2.54303e+06
-2.59321e+06
-2.63802e+06
-2.67649e+06
-2.70746e+06
-2.72949e+06
-2.74084e+06
-2.73932e+06
-2.7221e+06
-2.68536e+06
-2.62363e+06
-2.52861e+06
-2.38675e+06
-2.17429e+06
-1.84723e+06
-1.33002e+06
-599424
-96552
-167517
-243876
-320084
-396527
-473383
-550687
-628404
-706468
-784806
-863345
-942016
-1.02076e+06
-1.0995e+06
-1.1782e+06
-1.2568e+06
-1.33523e+06
-1.41343e+06
-1.49135e+06
-1.56889e+06
-1.64598e+06
-1.72252e+06
-1.79841e+06
-1.87351e+06
-1.94768e+06
-2.02074e+06
-2.09251e+06
-2.16274e+06
-2.23117e+06
-2.29748e+06
-2.36129e+06
-2.42218e+06
-2.47961e+06
-2.53296e+06
-2.58149e+06
-2.62434e+06
-2.66043e+06
-2.6885e+06
-2.70698e+06
-2.71395e+06
-2.70703e+06
-2.68315e+06
-2.63829e+06
-2.56698e+06
-2.46149e+06
-2.31026e+06
-2.09414e+06
-1.77681e+06
-1.28766e+06
-588245
-96497
-167595
-243963
-320216
-396715
-473629
-550993
-628772
-706903
-785313
-863928
-942681
-1.02151e+06
-1.10036e+06
-1.17916e+06
-1.25787e+06
-1.33644e+06
-1.41479e+06
-1.49287e+06
-1.5706e+06
-1.64789e+06
-1.72467e+06
-1.80083e+06
-1.87623e+06
-1.95074e+06
-2.0242e+06
-2.09643e+06
-2.16718e+06
-2.23622e+06
-2.30324e+06
-2.36788e+06
-2.42974e+06
-2.48832e+06
-2.54304e+06
-2.59321e+06
-2.63802e+06
-2.67649e+06
-2.70746e+06
-2.72949e+06
-2.74084e+06
-2.73932e+06
-2.72211e+06
-2.68536e+06
-2.62363e+06
-2.52861e+06
-2.38675e+06
-2.17429e+06
-1.84723e+06
-1.33002e+06
-599425
-96339.7
-167827
-244221
-320601
-397259
-474341
-551880
-629842
-708166
-786782
-865618
-944610
-1.0237e+06
-1.10283e+06
-1.18195e+06
-1.261e+06
-1.33995e+06
-1.41873e+06
-1.49728e+06
-1.57554e+06
-1.65344e+06
-1.7309e+06
-1.80782e+06
-1.88409e+06
-1.9596e+06
-2.03419e+06
-2.10772e+06
-2.17998e+06
-2.25076e+06
-2.3198e+06
-2.38681e+06
-2.45144e+06
-2.51329e+06
-2.57188e+06
-2.62668e+06
-2.67704e+06
-2.72222e+06
-2.76134e+06
-2.79334e+06
-2.81697e+06
-2.83062e+06
-2.83219e+06
-2.8186e+06
-2.78489e+06
-2.72224e+06
-2.61373e+06
-2.42557e+06
-2.09202e+06
-1.5065e+06
-658211
-96111.2
-168194
-244639
-321208
-398105
-475446
-553256
-631502
-710127
-789063
-868241
-947603
-1.02709e+06
-1.10666e+06
-1.18626e+06
-1.26585e+06
-1.34539e+06
-1.42482e+06
-1.5041e+06
-1.58318e+06
-1.662e+06
-1.74049e+06
-1.81858e+06
-1.89618e+06
-1.97319e+06
-2.04951e+06
-2.12501e+06
-2.19954e+06
-2.27294e+06
-2.34501e+06
-2.41555e+06
-2.48432e+06
-2.55102e+06
-2.61535e+06
-2.67696e+06
-2.73545e+06
-2.7904e+06
-2.84134e+06
-2.88775e+06
-2.92904e+06
-2.96455e+06
-2.99332e+06
-3.01382e+06
-3.02296e+06
-3.01389e+06
-2.97068e+06
-2.85585e+06
-2.58247e+06
-1.96806e+06
-856415
-95864.6
-168599
-245167
-321963
-399142
-476794
-554936
-633531
-712524
-791850
-871447
-951260
-1.03124e+06
-1.11134e+06
-1.19153e+06
-1.27176e+06
-1.352e+06
-1.43223e+06
-1.51239e+06
-1.59244e+06
-1.67236e+06
-1.75208e+06
-1.83156e+06
-1.91074e+06
-1.98954e+06
-2.06788e+06
-2.1457e+06
-2.22289e+06
-2.29934e+06
-2.37493e+06
-2.44955e+06
-2.52306e+06
-2.5953e+06
-2.66614e+06
-2.73541e+06
-2.803e+06
-2.86879e+06
-2.93274e+06
-2.99486e+06
-3.05532e+06
-3.11441e+06
-3.17259e+06
-3.23036e+06
-3.28784e+06
-3.34339e+06
-3.39e+06
-3.4049e+06
-3.31787e+06
-2.90052e+06
-1.31933e+06
-96056
-168324
-244825
-321444
-398410
-475837
-553743
-632093
-710826
-789874
-869174
-948668
-1.0283e+06
-1.10803e+06
-1.1878e+06
-1.26758e+06
-1.34733e+06
-1.42699e+06
-1.50654e+06
-1.58591e+06
-1.66506e+06
-1.74392e+06
-1.82243e+06
-1.90051e+06
-1.97807e+06
-2.05502e+06
-2.13123e+06
-2.20659e+06
-2.28094e+06
-2.35412e+06
-2.42595e+06
-2.49622e+06
-2.56469e+06
-2.63111e+06
-2.6952e+06
-2.75667e+06
-2.81519e+06
-2.87045e+06
-2.92215e+06
-2.97001e+06
-3.01379e+06
-3.05324e+06
-3.08802e+06
-3.11717e+06
-3.13804e+06
-3.14323e+06
-3.11252e+06
-2.98845e+06
-2.58806e+06
-1.16999e+06
-96338.9
-167827
-244222
-320602
-397258
-474339
-551877
-629840
-708165
-786778
-865614
-944606
-1.0237e+06
-1.10283e+06
-1.18195e+06
-1.261e+06
-1.33995e+06
-1.41873e+06
-1.49728e+06
-1.57554e+06
-1.65344e+06
-1.73089e+06
-1.80781e+06
-1.88409e+06
-1.95959e+06
-2.03419e+06
-2.10771e+06
-2.17998e+06
-2.25076e+06
-2.3198e+06
-2.38681e+06
-2.45144e+06
-2.51328e+06
-2.57188e+06
-2.62668e+06
-2.67704e+06
-2.72222e+06
-2.76134e+06
-2.79334e+06
-2.81697e+06
-2.83062e+06
-2.83218e+06
-2.81859e+06
-2.78488e+06
-2.72224e+06
-2.61373e+06
-2.42557e+06
-2.09204e+06
-1.50651e+06
-658213
-96582.9
-167421
-243759
-319933
-396328
-473125
-550367
-628017
-706012
-784275
-862733
-941318
-1.01996e+06
-1.09861e+06
-1.17719e+06
-1.25566e+06
-1.33395e+06
-1.412e+06
-1.48974e+06
-1.56708e+06
-1.64394e+06
-1.72023e+06
-1.79583e+06
-1.8706e+06
-1.94439e+06
-2.01702e+06
-2.08828e+06
-2.15793e+06
-2.22568e+06
-2.29119e+06
-2.35407e+06
-2.41384e+06
-2.46995e+06
-2.52174e+06
-2.56839e+06
-2.60895e+06
-2.64226e+06
-2.6669e+06
-2.68112e+06
-2.68274e+06
-2.66894e+06
-2.63607e+06
-2.57909e+06
-2.49077e+06
-2.3603e+06
-2.17075e+06
-1.89593e+06
-1.5009e+06
-971668
-444988
-96750.4
-167166
-243472
-319510
-395730
-472343
-549393
-626842
-704624
-782661
-860877
-939198
-1.01756e+06
-1.09589e+06
-1.17413e+06
-1.25221e+06
-1.33007e+06
-1.40765e+06
-1.48485e+06
-1.5616e+06
-1.63779e+06
-1.71331e+06
-1.78804e+06
-1.86182e+06
-1.93448e+06
-2.0058e+06
-2.07557e+06
-2.14348e+06
-2.20921e+06
-2.27237e+06
-2.33248e+06
-2.38899e+06
-2.44124e+06
-2.4884e+06
-2.52951e+06
-2.56338e+06
-2.58855e+06
-2.60321e+06
-2.60513e+06
-2.59147e+06
-2.55865e+06
-2.50205e+06
-2.41567e+06
-2.29173e+06
-2.12027e+06
-1.88927e+06
-1.58603e+06
-1.20337e+06
-763407
-382352
-96809.7
-167079
-243375
-319365
-395525
-472074
-549057
-626438
-704146
-782106
-860237
-938467
-1.01673e+06
-1.09495e+06
-1.17307e+06
-1.25102e+06
-1.32874e+06
-1.40614e+06
-1.48316e+06
-1.5597e+06
-1.63566e+06
-1.71092e+06
-1.78534e+06
-1.85878e+06
-1.93104e+06
-2.00191e+06
-2.07115e+06
-2.13846e+06
-2.20349e+06
-2.26581e+06
-2.32495e+06
-2.38032e+06
-2.4312e+06
-2.47674e+06
-2.51588e+06
-2.54738e+06
-2.56965e+06
-2.58076e+06
-2.57828e+06
-2.55917e+06
-2.51956e+06
-2.45454e+06
-2.35786e+06
-2.22172e+06
-2.03697e+06
-1.79422e+06
-1.48676e+06
-1.11696e+06
-712544
-370595
-96750.6
-167165
-243472
-319509
-395730
-472344
-549394
-626843
-704625
-782663
-860879
-939200
-1.01756e+06
-1.09589e+06
-1.17413e+06
-1.25221e+06
-1.33008e+06
-1.40765e+06
-1.48485e+06
-1.5616e+06
-1.63779e+06
-1.71331e+06
-1.78804e+06
-1.86182e+06
-1.93448e+06
-2.00581e+06
-2.07557e+06
-2.14348e+06
-2.20921e+06
-2.27237e+06
-2.33248e+06
-2.389e+06
-2.44124e+06
-2.4884e+06
-2.52951e+06
-2.56338e+06
-2.58855e+06
-2.60321e+06
-2.60513e+06
-2.59147e+06
-2.55865e+06
-2.50205e+06
-2.41568e+06
-2.29173e+06
-2.12027e+06
-1.88927e+06
-1.58603e+06
-1.20337e+06
-763408
-382354
-96583.2
-167420
-243759
-319933
-396329
-473127
-550369
-628019
-706013
-784278
-862737
-941321
-1.01997e+06
-1.09861e+06
-1.1772e+06
-1.25566e+06
-1.33395e+06
-1.412e+06
-1.48974e+06
-1.56708e+06
-1.64395e+06
-1.72024e+06
-1.79584e+06
-1.87061e+06
-1.94439e+06
-2.01702e+06
-2.08828e+06
-2.15793e+06
-2.22568e+06
-2.29119e+06
-2.35407e+06
-2.41384e+06
-2.46996e+06
-2.52174e+06
-2.56839e+06
-2.60895e+06
-2.64226e+06
-2.6669e+06
-2.68113e+06
-2.68274e+06
-2.66895e+06
-2.63607e+06
-2.57909e+06
-2.49078e+06
-2.3603e+06
-2.17075e+06
-1.89593e+06
-1.50089e+06
-971663
-444987
-96339.3
-167826
-244221
-320601
-397259
-474341
-551880
-629842
-708166
-786782
-865618
-944610
-1.0237e+06
-1.10283e+06
-1.18195e+06
-1.26101e+06
-1.33995e+06
-1.41873e+06
-1.49728e+06
-1.57554e+06
-1.65344e+06
-1.7309e+06
-1.80782e+06
-1.88409e+06
-1.9596e+06
-2.03419e+06
-2.10772e+06
-2.17998e+06
-2.25076e+06
-2.3198e+06
-2.38681e+06
-2.45144e+06
-2.51329e+06
-2.57188e+06
-2.62668e+06
-2.67704e+06
-2.72222e+06
-2.76134e+06
-2.79334e+06
-2.81697e+06
-2.83062e+06
-2.83219e+06
-2.81859e+06
-2.78488e+06
-2.72224e+06
-2.61373e+06
-2.42557e+06
-2.09203e+06
-1.50651e+06
-658212
-96056.5
-168323
-244825
-321443
-398411
-475839
-553746
-632096
-710828
-789877
-869178
-948672
-1.02831e+06
-1.10803e+06
-1.1878e+06
-1.26758e+06
-1.34733e+06
-1.427e+06
-1.50654e+06
-1.58592e+06
-1.66506e+06
-1.74393e+06
-1.82244e+06
-1.90052e+06
-1.97808e+06
-2.05502e+06
-2.13123e+06
-2.20659e+06
-2.28094e+06
-2.35412e+06
-2.42595e+06
-2.49622e+06
-2.56469e+06
-2.63111e+06
-2.69521e+06
-2.75667e+06
-2.81519e+06
-2.87045e+06
-2.92215e+06
-2.97001e+06
-3.01379e+06
-3.05325e+06
-3.08802e+06
-3.11717e+06
-3.13804e+06
-3.14324e+06
-3.11252e+06
-2.98843e+06
-2.58805e+06
-1.16998e+06
-96179.3
-168156
-244613
-321116
-397945
-475229
-552987
-631181
-709748
-788621
-867733
-947024
-1.02644e+06
-1.10592e+06
-1.18544e+06
-1.26493e+06
-1.34435e+06
-1.42367e+06
-1.50282e+06
-1.58175e+06
-1.6604e+06
-1.73871e+06
-1.8166e+06
-1.89397e+06
-1.97073e+06
-2.04677e+06
-2.12194e+06
-2.19611e+06
-2.26909e+06
-2.3407e+06
-2.4107e+06
-2.47884e+06
-2.54483e+06
-2.60833e+06
-2.66898e+06
-2.72636e+06
-2.78e+06
-2.82942e+06
-2.87407e+06
-2.91339e+06
-2.94678e+06
-2.97361e+06
-2.99313e+06
-3.00421e+06
-3.00471e+06
-2.98962e+06
-2.9451e+06
-2.82658e+06
-2.46802e+06
-1.12342e+06
-96495.8
-167595
-243963
-320216
-396714
-473627
-550991
-628771
-706902
-785310
-863924
-942678
-1.02151e+06
-1.10035e+06
-1.17916e+06
-1.25787e+06
-1.33644e+06
-1.41479e+06
-1.49287e+06
-1.57059e+06
-1.64789e+06
-1.72467e+06
-1.80082e+06
-1.87623e+06
-1.95074e+06
-2.0242e+06
-2.09642e+06
-2.16718e+06
-2.23622e+06
-2.30324e+06
-2.36788e+06
-2.42974e+06
-2.48831e+06
-2.54303e+06
-2.5932e+06
-2.63801e+06
-2.67649e+06
-2.70746e+06
-2.72949e+06
-2.74084e+06
-2.73932e+06
-2.7221e+06
-2.68535e+06
-2.62362e+06
-2.5286e+06
-2.38675e+06
-2.17429e+06
-1.84724e+06
-1.33003e+06
-599431
-96749.9
-167165
-243472
-319510
-395730
-472342
-549392
-626842
-704624
-782660
-860876
-939197
-1.01756e+06
-1.09589e+06
-1.17413e+06
-1.25221e+06
-1.33007e+06
-1.40765e+06
-1.48485e+06
-1.56159e+06
-1.63778e+06
-1.71331e+06
-1.78804e+06
-1.86182e+06
-1.93448e+06
-2.0058e+06
-2.07557e+06
-2.14348e+06
-2.20921e+06
-2.27237e+06
-2.33248e+06
-2.38899e+06
-2.44124e+06
-2.4884e+06
-2.52951e+06
-2.56338e+06
-2.58855e+06
-2.60321e+06
-2.60513e+06
-2.59147e+06
-2.55865e+06
-2.50205e+06
-2.41567e+06
-2.29173e+06
-2.12027e+06
-1.88927e+06
-1.58604e+06
-1.20338e+06
-763414
-382354
-96918.4
-166901
-243169
-319063
-395100
-471517
-548365
-625603
-703161
-780959
-858918
-936961
-1.01502e+06
-1.09301e+06
-1.17088e+06
-1.24856e+06
-1.32597e+06
-1.40304e+06
-1.47968e+06
-1.55578e+06
-1.63125e+06
-1.70596e+06
-1.77976e+06
-1.85247e+06
-1.92391e+06
-1.99384e+06
-2.06198e+06
-2.12801e+06
-2.19155e+06
-2.25214e+06
-2.30923e+06
-2.36218e+06
-2.41017e+06
-2.45225e+06
-2.48722e+06
-2.51366e+06
-2.52974e+06
-2.53323e+06
-2.52131e+06
-2.49041e+06
-2.43603e+06
-2.3525e+06
-2.23277e+06
-2.06853e+06
-1.8512e+06
-1.57485e+06
-1.24261e+06
-877775
-539088
-318137
-96977.5
-166812
-243066
-318910
-394883
-471234
-548012
-625177
-702658
-780374
-858244
-936191
-1.01414e+06
-1.09202e+06
-1.16977e+06
-1.2473e+06
-1.32456e+06
-1.40145e+06
-1.47789e+06
-1.55378e+06
-1.62899e+06
-1.70342e+06
-1.77689e+06
-1.84924e+06
-1.92025e+06
-1.98969e+06
-2.05727e+06
-2.12264e+06
-2.18542e+06
-2.24511e+06
-2.30114e+06
-2.35282e+06
-2.39932e+06
-2.4396e+06
-2.47242e+06
-2.49621e+06
-2.50907e+06
-2.50859e+06
-2.49174e+06
-2.4547e+06
-2.39266e+06
-2.29959e+06
-2.16818e+06
-1.99018e+06
-1.758e+06
-1.46881e+06
-1.1325e+06
-782627
-483312
-305872
-96918.7
-166901
-243169
-319063
-395100
-471518
-548366
-625604
-703162
-780961
-858919
-936962
-1.01502e+06
-1.09301e+06
-1.17089e+06
-1.24856e+06
-1.32597e+06
-1.40304e+06
-1.47968e+06
-1.55578e+06
-1.63125e+06
-1.70596e+06
-1.77976e+06
-1.85248e+06
-1.92391e+06
-1.99384e+06
-2.06198e+06
-2.12802e+06
-2.19155e+06
-2.25214e+06
-2.30923e+06
-2.36218e+06
-2.41017e+06
-2.45225e+06
-2.48723e+06
-2.51366e+06
-2.52974e+06
-2.53323e+06
-2.52131e+06
-2.49041e+06
-2.43604e+06
-2.3525e+06
-2.23277e+06
-2.06853e+06
-1.8512e+06
-1.57485e+06
-1.24261e+06
-877774
-539087
-318137
-96750.3
-167165
-243472
-319510
-395731
-472344
-549394
-626844
-704626
-782663
-860879
-939200
-1.01756e+06
-1.09589e+06
-1.17413e+06
-1.25221e+06
-1.33008e+06
-1.40765e+06
-1.48485e+06
-1.5616e+06
-1.63779e+06
-1.71332e+06
-1.78804e+06
-1.86182e+06
-1.93448e+06
-2.00581e+06
-2.07557e+06
-2.14349e+06
-2.20922e+06
-2.27237e+06
-2.33248e+06
-2.389e+06
-2.44124e+06
-2.4884e+06
-2.52951e+06
-2.56338e+06
-2.58855e+06
-2.60321e+06
-2.60513e+06
-2.59147e+06
-2.55865e+06
-2.50205e+06
-2.41568e+06
-2.29173e+06
-2.12028e+06
-1.88927e+06
-1.58604e+06
-1.20337e+06
-763413
-382356
-96496.3
-167594
-243963
-320216
-396715
-473629
-550993
-628773
-706904
-785313
-863928
-942682
-1.02151e+06
-1.10036e+06
-1.17916e+06
-1.25788e+06
-1.33644e+06
-1.41479e+06
-1.49287e+06
-1.5706e+06
-1.6479e+06
-1.72468e+06
-1.80083e+06
-1.87623e+06
-1.95075e+06
-2.02421e+06
-2.09643e+06
-2.16719e+06
-2.23622e+06
-2.30324e+06
-2.36788e+06
-2.42974e+06
-2.48832e+06
-2.54303e+06
-2.59321e+06
-2.63802e+06
-2.67649e+06
-2.70746e+06
-2.72949e+06
-2.74084e+06
-2.73932e+06
-2.7221e+06
-2.68536e+06
-2.62363e+06
-2.52861e+06
-2.38675e+06
-2.17429e+06
-1.84723e+06
-1.33002e+06
-599429
-96180
-168156
-244613
-321116
-397946
-475231
-552989
-631183
-709751
-788624
-867737
-947028
-1.02644e+06
-1.10593e+06
-1.18544e+06
-1.26493e+06
-1.34436e+06
-1.42367e+06
-1.50282e+06
-1.58175e+06
-1.66041e+06
-1.73872e+06
-1.8166e+06
-1.89398e+06
-1.97074e+06
-2.04677e+06
-2.12195e+06
-2.19611e+06
-2.2691e+06
-2.3407e+06
-2.4107e+06
-2.47884e+06
-2.54483e+06
-2.60833e+06
-2.66898e+06
-2.72636e+06
-2.78001e+06
-2.82943e+06
-2.87408e+06
-2.91339e+06
-2.94679e+06
-2.97362e+06
-2.99313e+06
-3.00421e+06
-3.00471e+06
-2.98962e+06
-2.9451e+06
-2.82657e+06
-2.46801e+06
-1.12342e+06
-96221.2
-168101
-244541
-321004
-397785
-475020
-552727
-630868
-709379
-788191
-867239
-946461
-1.0258e+06
-1.1052e+06
-1.18462e+06
-1.26402e+06
-1.34333e+06
-1.42252e+06
-1.50154e+06
-1.58032e+06
-1.6588e+06
-1.73692e+06
-1.81459e+06
-1.89172e+06
-1.96821e+06
-2.04393e+06
-2.11874e+06
-2.1925e+06
-2.26501e+06
-2.33606e+06
-2.40543e+06
-2.47283e+06
-2.53795e+06
-2.60044e+06
-2.65988e+06
-2.71582e+06
-2.76776e+06
-2.81511e+06
-2.85727e+06
-2.89357e+06
-2.9233e+06
-2.94569e+06
-2.95991e+06
-2.96487e+06
-2.95887e+06
-2.93822e+06
-2.89198e+06
-2.77992e+06
-2.43815e+06
-1.11337e+06
-96550.5
-167516
-243875
-320084
-396527
-473381
-550685
-628403
-706467
-784804
-863343
-942014
-1.02075e+06
-1.0995e+06
-1.1782e+06
-1.2568e+06
-1.33523e+06
-1.41343e+06
-1.49134e+06
-1.56889e+06
-1.64598e+06
-1.72252e+06
-1.79841e+06
-1.87351e+06
-1.94768e+06
-2.02074e+06
-2.09251e+06
-2.16274e+06
-2.23117e+06
-2.29748e+06
-2.3613e+06
-2.42218e+06
-2.4796e+06
-2.53295e+06
-2.58149e+06
-2.62434e+06
-2.66043e+06
-2.6885e+06
-2.70698e+06
-2.71395e+06
-2.70703e+06
-2.68314e+06
-2.63828e+06
-2.56698e+06
-2.46149e+06
-2.31026e+06
-2.09415e+06
-1.77683e+06
-1.28768e+06
-588249
-96808.6
-167079
-243375
-319365
-395524
-472073
-549056
-626437
-704145
-782104
-860235
-938466
-1.01673e+06
-1.09495e+06
-1.17307e+06
-1.25102e+06
-1.32873e+06
-1.40614e+06
-1.48316e+06
-1.5597e+06
-1.63565e+06
-1.71091e+06
-1.78534e+06
-1.85878e+06
-1.93104e+06
-2.00191e+06
-2.07115e+06
-2.13846e+06
-2.20349e+06
-2.26581e+06
-2.32496e+06
-2.38032e+06
-2.4312e+06
-2.47673e+06
-2.51588e+06
-2.54738e+06
-2.56965e+06
-2.58075e+06
-2.57828e+06
-2.55917e+06
-2.51956e+06
-2.45454e+06
-2.35786e+06
-2.22172e+06
-2.03698e+06
-1.79423e+06
-1.48677e+06
-1.11698e+06
-712558
-370600
-96977
-166812
-243066
-318910
-394883
-471233
-548011
-625177
-702657
-780373
-858243
-936190
-1.01414e+06
-1.09202e+06
-1.16977e+06
-1.2473e+06
-1.32456e+06
-1.40145e+06
-1.47789e+06
-1.55377e+06
-1.62899e+06
-1.70342e+06
-1.77689e+06
-1.84924e+06
-1.92025e+06
-1.98969e+06
-2.05727e+06
-2.12264e+06
-2.18542e+06
-2.24511e+06
-2.30114e+06
-2.35283e+06
-2.39932e+06
-2.4396e+06
-2.47242e+06
-2.49621e+06
-2.50907e+06
-2.50859e+06
-2.49174e+06
-2.4547e+06
-2.39266e+06
-2.29959e+06
-2.16819e+06
-1.99019e+06
-1.758e+06
-1.46881e+06
-1.1325e+06
-782634
-483317
-305873
-97035.6
-166723
-242961
-318755
-394663
-470945
-547652
-624743
-702146
-779778
-857558
-935407
-1.01325e+06
-1.09102e+06
-1.16863e+06
-1.24602e+06
-1.32312e+06
-1.39983e+06
-1.47607e+06
-1.55173e+06
-1.62669e+06
-1.70083e+06
-1.77397e+06
-1.84594e+06
-1.91652e+06
-1.98545e+06
-2.05245e+06
-2.11716e+06
-2.17914e+06
-2.23791e+06
-2.29285e+06
-2.34325e+06
-2.3882e+06
-2.42663e+06
-2.45721e+06
-2.47828e+06
-2.48781e+06
-2.48321e+06
-2.46124e+06
-2.41782e+06
-2.34781e+06
-2.24483e+06
-2.10129e+06
-1.90901e+06
-1.66148e+06
-1.35916e+06
-1.01892e+06
-684737
-425931
-293390
-96977.3
-166812
-243066
-318910
-394883
-471234
-548012
-625177
-702658
-780374
-858245
-936191
-1.01414e+06
-1.09202e+06
-1.16977e+06
-1.2473e+06
-1.32456e+06
-1.40145e+06
-1.47789e+06
-1.55378e+06
-1.629e+06
-1.70342e+06
-1.77689e+06
-1.84924e+06
-1.92025e+06
-1.98969e+06
-2.05727e+06
-2.12265e+06
-2.18542e+06
-2.24511e+06
-2.30114e+06
-2.35283e+06
-2.39932e+06
-2.4396e+06
-2.47242e+06
-2.49621e+06
-2.50907e+06
-2.50859e+06
-2.49174e+06
-2.4547e+06
-2.39266e+06
-2.29959e+06
-2.16819e+06
-1.99019e+06
-1.758e+06
-1.46881e+06
-1.1325e+06
-782632
-483317
-305875
-96809.2
-167078
-243375
-319365
-395525
-472074
-549058
-626438
-704147
-782107
-860238
-938469
-1.01673e+06
-1.09495e+06
-1.17307e+06
-1.25102e+06
-1.32874e+06
-1.40615e+06
-1.48316e+06
-1.5597e+06
-1.63566e+06
-1.71092e+06
-1.78535e+06
-1.85878e+06
-1.93104e+06
-2.00192e+06
-2.07116e+06
-2.13846e+06
-2.20349e+06
-2.26581e+06
-2.32495e+06
-2.38032e+06
-2.4312e+06
-2.47674e+06
-2.51588e+06
-2.54738e+06
-2.56965e+06
-2.58076e+06
-2.57828e+06
-2.55917e+06
-2.51956e+06
-2.45454e+06
-2.35786e+06
-2.22172e+06
-2.03698e+06
-1.79423e+06
-1.48677e+06
-1.11697e+06
-712555
-370599
-96551.2
-167516
-243875
-320085
-396528
-473384
-550688
-628405
-706469
-784807
-863346
-942017
-1.02076e+06
-1.0995e+06
-1.1782e+06
-1.2568e+06
-1.33523e+06
-1.41344e+06
-1.49135e+06
-1.56889e+06
-1.64598e+06
-1.72253e+06
-1.79841e+06
-1.87351e+06
-1.94768e+06
-2.02075e+06
-2.09251e+06
-2.16275e+06
-2.23118e+06
-2.29748e+06
-2.3613e+06
-2.42218e+06
-2.4796e+06
-2.53295e+06
-2.58149e+06
-2.62434e+06
-2.66043e+06
-2.6885e+06
-2.70698e+06
-2.71395e+06
-2.70703e+06
-2.68315e+06
-2.63829e+06
-2.56698e+06
-2.46149e+06
-2.31026e+06
-2.09415e+06
-1.77683e+06
-1.28768e+06
-588250
-96222
-168100
-244541
-321004
-397787
-475023
-552730
-630870
-709382
-788195
-867243
-946465
-1.0258e+06
-1.10521e+06
-1.18463e+06
-1.26402e+06
-1.34334e+06
-1.42253e+06
-1.50154e+06
-1.58032e+06
-1.65881e+06
-1.73693e+06
-1.8146e+06
-1.89173e+06
-1.96821e+06
-2.04393e+06
-2.11875e+06
-2.1925e+06
-2.26501e+06
-2.33606e+06
-2.40543e+06
-2.47283e+06
-2.53795e+06
-2.60044e+06
-2.65988e+06
-2.71582e+06
-2.76776e+06
-2.81512e+06
-2.85728e+06
-2.89358e+06
-2.9233e+06
-2.9457e+06
-2.95991e+06
-2.96487e+06
-2.95887e+06
-2.93823e+06
-2.89197e+06
-2.77991e+06
-2.43814e+06
-1.11337e+06
-96179
-168156
-244613
-321115
-397945
-475229
-552987
-631181
-709749
-788621
-867733
-947025
-1.02644e+06
-1.10593e+06
-1.18544e+06
-1.26493e+06
-1.34435e+06
-1.42367e+06
-1.50282e+06
-1.58175e+06
-1.6604e+06
-1.73871e+06
-1.8166e+06
-1.89397e+06
-1.97073e+06
-2.04677e+06
-2.12194e+06
-2.19611e+06
-2.26909e+06
-2.3407e+06
-2.4107e+06
-2.47884e+06
-2.54483e+06
-2.60833e+06
-2.66898e+06
-2.72636e+06
-2.78001e+06
-2.82942e+06
-2.87407e+06
-2.91339e+06
-2.94678e+06
-2.97362e+06
-2.99313e+06
-3.00421e+06
-3.00471e+06
-2.98963e+06
-2.94511e+06
-2.82658e+06
-2.46802e+06
-1.12342e+06
-96495.3
-167594
-243962
-320216
-396714
-473627
-550991
-628771
-706902
-785310
-863925
-942679
-1.02151e+06
-1.10035e+06
-1.17916e+06
-1.25787e+06
-1.33644e+06
-1.41479e+06
-1.49287e+06
-1.57059e+06
-1.64789e+06
-1.72467e+06
-1.80082e+06
-1.87623e+06
-1.95074e+06
-2.0242e+06
-2.09642e+06
-2.16718e+06
-2.23622e+06
-2.30324e+06
-2.36788e+06
-2.42974e+06
-2.48832e+06
-2.54303e+06
-2.59321e+06
-2.63802e+06
-2.67649e+06
-2.70746e+06
-2.72949e+06
-2.74084e+06
-2.73932e+06
-2.7221e+06
-2.68536e+06
-2.62363e+06
-2.52861e+06
-2.38676e+06
-2.1743e+06
-1.84724e+06
-1.33003e+06
-599431
-96749.2
-167165
-243472
-319509
-395730
-472343
-549392
-626842
-704624
-782661
-860876
-939198
-1.01756e+06
-1.09589e+06
-1.17413e+06
-1.25221e+06
-1.33007e+06
-1.40765e+06
-1.48485e+06
-1.56159e+06
-1.63779e+06
-1.71331e+06
-1.78804e+06
-1.86182e+06
-1.93448e+06
-2.00581e+06
-2.07557e+06
-2.14348e+06
-2.20922e+06
-2.27237e+06
-2.33248e+06
-2.389e+06
-2.44124e+06
-2.48841e+06
-2.52952e+06
-2.56338e+06
-2.58855e+06
-2.60321e+06
-2.60513e+06
-2.59147e+06
-2.55865e+06
-2.50205e+06
-2.41568e+06
-2.29174e+06
-2.12029e+06
-1.88928e+06
-1.58605e+06
-1.20339e+06
-763419
-382356
-96917.7
-166901
-243168
-319063
-395100
-471518
-548365
-625604
-703162
-780959
-858918
-936961
-1.01502e+06
-1.09301e+06
-1.17088e+06
-1.24856e+06
-1.32597e+06
-1.40304e+06
-1.47968e+06
-1.55578e+06
-1.63125e+06
-1.70596e+06
-1.77976e+06
-1.85248e+06
-1.92391e+06
-1.99384e+06
-2.06198e+06
-2.12802e+06
-2.19156e+06
-2.25214e+06
-2.30924e+06
-2.36218e+06
-2.41017e+06
-2.45225e+06
-2.48723e+06
-2.51366e+06
-2.52974e+06
-2.53323e+06
-2.52131e+06
-2.49041e+06
-2.43604e+06
-2.35251e+06
-2.23278e+06
-2.06854e+06
-1.85121e+06
-1.57486e+06
-1.24262e+06
-877784
-539093
-318138
-96976.8
-166812
-243066
-318910
-394883
-471234
-548012
-625177
-702658
-780374
-858244
-936191
-1.01414e+06
-1.09202e+06
-1.16977e+06
-1.2473e+06
-1.32456e+06
-1.40145e+06
-1.47789e+06
-1.55378e+06
-1.62899e+06
-1.70342e+06
-1.77689e+06
-1.84924e+06
-1.92025e+06
-1.98969e+06
-2.05727e+06
-2.12265e+06
-2.18542e+06
-2.24511e+06
-2.30114e+06
-2.35283e+06
-2.39932e+06
-2.43961e+06
-2.47242e+06
-2.49621e+06
-2.50908e+06
-2.50859e+06
-2.49174e+06
-2.4547e+06
-2.39266e+06
-2.2996e+06
-2.16819e+06
-1.9902e+06
-1.75801e+06
-1.46882e+06
-1.1325e+06
-782635
-483321
-305876
-96918.1
-166901
-243168
-319063
-395100
-471518
-548366
-625604
-703162
-780961
-858919
-936962
-1.01502e+06
-1.09301e+06