/*--------------------------------*- C++ -*----------------------------------*\
| =========                 |                                                 |
| \\      /  F ield         | foam-extend: Open Source CFD                    |
|  \\    /   O peration     | Version:     3.1                                |
|   \\  /    A nd           | Web:         http://www.extend-project.de       |
|    \\/     M anipulation  |                                                 |
\*---------------------------------------------------------------------------*/
FoamFile
{
    version     2.0;
    format      ascii;
    class       volScalarField;
    location    "230";
    object      initEffSigmaMean;
}
// * * * * * * * * * * * * * * * * * * * * * * * * * * * * * * * * * * * * * //

dimensions      [1 -1 -2 0 0 0 0];

internalField   nonuniform List<scalar> 
34650
(
-86940.9
-109486
-138883
-172442
-208650
-246410
-285081
-324318
-363947
-403874
-444047
-484433
-525005
-565744
-606632
-647655
-688799
-730051
-771400
-812835
-854345
-895919
-937544
-979209
-1.0209e+06
-1.06259e+06
-1.10428e+06
-1.14595e+06
-1.18756e+06
-1.22911e+06
-1.27057e+06
-1.31191e+06
-1.35312e+06
-1.39418e+06
-1.43509e+06
-1.47586e+06
-1.51653e+06
-1.55717e+06
-1.59794e+06
-1.63908e+06
-1.68096e+06
-1.72415e+06
-1.76941e+06
-1.81764e+06
-1.86969e+06
-1.92573e+06
-1.98235e+06
-2.01553e+06
-1.89413e+06
-935289
-88355.2
-109557
-138669
-172129
-208276
-245971
-284560
-323699
-363216
-403019
-443058
-483299
-523714
-564282
-604985
-645804
-686723
-727727
-768800
-809927
-851093
-892281
-933473
-974647
-1.01578e+06
-1.05685e+06
-1.09782e+06
-1.13866e+06
-1.17933e+06
-1.21979e+06
-1.26e+06
-1.29988e+06
-1.3394e+06
-1.37848e+06
-1.41706e+06
-1.45507e+06
-1.49246e+06
-1.5292e+06
-1.56526e+06
-1.6007e+06
-1.63561e+06
-1.67019e+06
-1.70464e+06
-1.73904e+06
-1.77287e+06
-1.80397e+06
-1.82452e+06
-1.80365e+06
-1.61853e+06
-803449
-89697
-109481
-138400
-171836
-207962
-245613
-284138
-323198
-362625
-402330
-442261
-482385
-522673
-563105
-603657
-644311
-685049
-725852
-766701
-807579
-848464
-889338
-930176
-970950
-1.01163e+06
-1.05218e+06
-1.09256e+06
-1.13272e+06
-1.17262e+06
-1.21218e+06
-1.25134e+06
-1.29002e+06
-1.32812e+06
-1.36553e+06
-1.40214e+06
-1.43782e+06
-1.47242e+06
-1.5058e+06
-1.53782e+06
-1.56832e+06
-1.59719e+06
-1.62433e+06
-1.6496e+06
-1.67273e+06
-1.69293e+06
-1.70789e+06
-1.70988e+06
-1.67042e+06
-1.4823e+06
-721208
-90560.4
-109434
-138214
-171644
-207763
-245389
-283874
-322885
-362256
-401899
-441764
-481814
-522024
-562370
-602828
-643379
-684003
-724680
-765389
-806109
-846818
-887494
-928108
-968628
-1.00902e+06
-1.04924e+06
-1.08924e+06
-1.12898e+06
-1.16837e+06
-1.20736e+06
-1.24585e+06
-1.28374e+06
-1.32092e+06
-1.35725e+06
-1.39257e+06
-1.42672e+06
-1.45948e+06
-1.49064e+06
-1.51995e+06
-1.54715e+06
-1.57198e+06
-1.59415e+06
-1.61343e+06
-1.62954e+06
-1.64206e+06
-1.64962e+06
-1.64633e+06
-1.60706e+06
-1.43098e+06
-695343
-90856
-109420
-138147
-171576
-207695
-245312
-283784
-322778
-362130
-401753
-441594
-481620
-521803
-562119
-602545
-643061
-683646
-724280
-764941
-805607
-846256
-886864
-927401
-967834
-1.00813e+06
-1.04823e+06
-1.08811e+06
-1.12769e+06
-1.16692e+06
-1.2057e+06
-1.24396e+06
-1.28158e+06
-1.31844e+06
-1.35439e+06
-1.38927e+06
-1.42288e+06
-1.45499e+06
-1.48537e+06
-1.51373e+06
-1.53978e+06
-1.56318e+06
-1.58362e+06
-1.60083e+06
-1.61459e+06
-1.62472e+06
-1.63039e+06
-1.62653e+06
-1.58918e+06
-1.41843e+06
-689748
-90561.3
-109434
-138213
-171643
-207763
-245389
-283874
-322885
-362256
-401900
-441764
-481815
-522025
-562370
-602829
-643379
-684004
-724680
-765389
-806110
-846819
-887495
-928108
-968628
-1.00902e+06
-1.04924e+06
-1.08925e+06
-1.12898e+06
-1.16837e+06
-1.20736e+06
-1.24585e+06
-1.28374e+06
-1.32092e+06
-1.35725e+06
-1.39257e+06
-1.42672e+06
-1.45948e+06
-1.49064e+06
-1.51995e+06
-1.54715e+06
-1.57197e+06
-1.59415e+06
-1.61343e+06
-1.62954e+06
-1.64206e+06
-1.64962e+06
-1.64633e+06
-1.60706e+06
-1.43098e+06
-695344
-89699.2
-109480
-138399
-171836
-207962
-245614
-284138
-323198
-362625
-402331
-442262
-482385
-522674
-563105
-603657
-644311
-685050
-725853
-766702
-807580
-848466
-889340
-930177
-970951
-1.01163e+06
-1.05218e+06
-1.09256e+06
-1.13273e+06
-1.17262e+06
-1.21218e+06
-1.25134e+06
-1.29002e+06
-1.32812e+06
-1.36553e+06
-1.40214e+06
-1.43782e+06
-1.47242e+06
-1.50581e+06
-1.53782e+06
-1.56832e+06
-1.59719e+06
-1.62433e+06
-1.6496e+06
-1.67273e+06
-1.69293e+06
-1.70789e+06
-1.70988e+06
-1.67041e+06
-1.48229e+06
-721207
-88358
-109557
-138668
-172128
-208276
-245972
-284560
-323699
-363216
-403021
-443060
-483300
-523715
-564283
-604985
-645804
-686724
-727728
-768802
-809929
-851094
-892283
-933474
-974648
-1.01578e+06
-1.05685e+06
-1.09782e+06
-1.13866e+06
-1.17933e+06
-1.2198e+06
-1.26e+06
-1.29989e+06
-1.3394e+06
-1.37848e+06
-1.41706e+06
-1.45507e+06
-1.49246e+06
-1.5292e+06
-1.56526e+06
-1.6007e+06
-1.63561e+06
-1.67019e+06
-1.70465e+06
-1.73904e+06
-1.77288e+06
-1.80397e+06
-1.82452e+06
-1.80365e+06
-1.61853e+06
-803448
-86944
-109486
-138881
-172441
-208650
-246411
-285081
-324319
-363947
-403875
-444049
-484434
-525006
-565745
-606633
-647656
-688800
-730053
-771402
-812837
-854347
-895921
-937546
-979210
-1.0209e+06
-1.0626e+06
-1.10429e+06
-1.14595e+06
-1.18756e+06
-1.22911e+06
-1.27057e+06
-1.31191e+06
-1.35312e+06
-1.39418e+06
-1.43509e+06
-1.47586e+06
-1.51653e+06
-1.55718e+06
-1.59794e+06
-1.63908e+06
-1.68096e+06
-1.72415e+06
-1.76941e+06
-1.81765e+06
-1.86969e+06
-1.92573e+06
-1.98235e+06
-2.01553e+06
-1.89413e+06
-935289
-88354
-109557
-138669
-172129
-208276
-245971
-284559
-323699
-363216
-403019
-443058
-483298
-523714
-564282
-604985
-645804
-686723
-727727
-768800
-809927
-851092
-892281
-933472
-974646
-1.01578e+06
-1.05685e+06
-1.09782e+06
-1.13866e+06
-1.17933e+06
-1.21979e+06
-1.26e+06
-1.29988e+06
-1.3394e+06
-1.37848e+06
-1.41706e+06
-1.45507e+06
-1.49246e+06
-1.5292e+06
-1.56526e+06
-1.6007e+06
-1.63561e+06
-1.67019e+06
-1.70464e+06
-1.73904e+06
-1.77287e+06
-1.80397e+06
-1.82452e+06
-1.80366e+06
-1.61853e+06
-803450
-90180.1
-109476
-138277
-171714
-207847
-245489
-283994
-323029
-362426
-402097
-441992
-482077
-522323
-562708
-603210
-643808
-684483
-725217
-765990
-806781
-847570
-888335
-929049
-969683
-1.0102e+06
-1.05057e+06
-1.09074e+06
-1.13067e+06
-1.17028e+06
-1.20952e+06
-1.2483e+06
-1.28654e+06
-1.32412e+06
-1.36092e+06
-1.3968e+06
-1.43161e+06
-1.46516e+06
-1.49727e+06
-1.52772e+06
-1.55627e+06
-1.58266e+06
-1.60655e+06
-1.62742e+06
-1.64428e+06
-1.65489e+06
-1.6538e+06
-1.62626e+06
-1.53017e+06
-1.25896e+06
-698074
-91750.6
-109270
-137892
-171353
-207482
-245076
-283505
-322447
-361739
-401296
-441067
-481017
-521117
-561343
-601670
-642076
-682540
-723038
-763548
-804044
-844503
-884895
-925188
-965343
-1.00532e+06
-1.04506e+06
-1.08452e+06
-1.12363e+06
-1.16229e+06
-1.20043e+06
-1.23793e+06
-1.27466e+06
-1.31048e+06
-1.34519e+06
-1.37858e+06
-1.41041e+06
-1.44038e+06
-1.46814e+06
-1.49328e+06
-1.5153e+06
-1.53357e+06
-1.54734e+06
-1.55557e+06
-1.55675e+06
-1.54824e+06
-1.52428e+06
-1.47012e+06
-1.34801e+06
-1.0805e+06
-630420
-92795.5
-109122
-137629
-171116
-207247
-244811
-283190
-322072
-361298
-400781
-440473
-480336
-520342
-560465
-600680
-640961
-681288
-721633
-761972
-802277
-842520
-882669
-922687
-962529
-1.00215e+06
-1.04148e+06
-1.08047e+06
-1.11903e+06
-1.15707e+06
-1.19447e+06
-1.23112e+06
-1.26684e+06
-1.30146e+06
-1.33476e+06
-1.36646e+06
-1.39626e+06
-1.42377e+06
-1.44854e+06
-1.47e+06
-1.48747e+06
-1.50011e+06
-1.5069e+06
-1.50658e+06
-1.49763e+06
-1.4779e+06
-1.44294e+06
-1.38066e+06
-1.259e+06
-1.0131e+06
-611006
-93158.7
-109071
-137535
-171033
-207166
-244720
-283082
-321944
-361146
-400605
-440268
-480102
-520076
-560163
-600339
-640578
-680857
-721150
-761429
-801668
-841836
-881901
-921823
-961556
-1.00105e+06
-1.04024e+06
-1.07907e+06
-1.11744e+06
-1.15525e+06
-1.1924e+06
-1.22875e+06
-1.26412e+06
-1.29832e+06
-1.33112e+06
-1.36223e+06
-1.39131e+06
-1.41794e+06
-1.44164e+06
-1.46179e+06
-1.47764e+06
-1.48828e+06
-1.49259e+06
-1.48928e+06
-1.47691e+06
-1.45364e+06
-1.41576e+06
-1.35249e+06
-1.23376e+06
-997006
-607433
-92797
-109122
-137628
-171115
-207247
-244811
-283191
-322072
-361298
-400782
-440473
-480337
-520343
-560466
-600680
-640962
-681288
-721634
-761973
-802278
-842521
-882670
-922687
-962529
-1.00215e+06
-1.04148e+06
-1.08047e+06
-1.11903e+06
-1.15707e+06
-1.19447e+06
-1.23112e+06
-1.26684e+06
-1.30146e+06
-1.33476e+06
-1.36646e+06
-1.39626e+06
-1.42377e+06
-1.44854e+06
-1.47e+06
-1.48747e+06
-1.50011e+06
-1.5069e+06
-1.50658e+06
-1.49763e+06
-1.4779e+06
-1.44294e+06
-1.38066e+06
-1.259e+06
-1.01309e+06
-611007
-91753.2
-109269
-137891
-171353
-207482
-245077
-283505
-322447
-361739
-401297
-441068
-481018
-521118
-561344
-601671
-642076
-682540
-723039
-763549
-804046
-844504
-884896
-925189
-965344
-1.00532e+06
-1.04506e+06
-1.08452e+06
-1.12363e+06
-1.16229e+06
-1.20043e+06
-1.23793e+06
-1.27467e+06
-1.31048e+06
-1.34519e+06
-1.37858e+06
-1.41041e+06
-1.44038e+06
-1.46814e+06
-1.49328e+06
-1.5153e+06
-1.53357e+06
-1.54734e+06
-1.55557e+06
-1.55675e+06
-1.54824e+06
-1.52428e+06
-1.47012e+06
-1.34801e+06
-1.0805e+06
-630420
-90183.6
-109476
-138276
-171714
-207847
-245490
-283995
-323030
-362427
-402099
-441994
-482078
-522324
-562709
-603210
-643808
-684485
-725219
-765992
-806783
-847572
-888337
-929051
-969684
-1.0102e+06
-1.05057e+06
-1.09074e+06
-1.13067e+06
-1.17028e+06
-1.20952e+06
-1.24831e+06
-1.28654e+06
-1.32412e+06
-1.36092e+06
-1.3968e+06
-1.43161e+06
-1.46516e+06
-1.49727e+06
-1.52772e+06
-1.55627e+06
-1.58266e+06
-1.60655e+06
-1.62742e+06
-1.64428e+06
-1.6549e+06
-1.6538e+06
-1.62626e+06
-1.53017e+06
-1.25896e+06
-698074
-88357.8
-109557
-138668
-172128
-208276
-245971
-284560
-323699
-363216
-403021
-443060
-483300
-523715
-564283
-604986
-645804
-686724
-727728
-768802
-809929
-851095
-892283
-933474
-974648
-1.01578e+06
-1.05685e+06
-1.09782e+06
-1.13866e+06
-1.17933e+06
-1.2198e+06
-1.26e+06
-1.29989e+06
-1.3394e+06
-1.37848e+06
-1.41706e+06
-1.45507e+06
-1.49246e+06
-1.5292e+06
-1.56526e+06
-1.6007e+06
-1.63561e+06
-1.67019e+06
-1.70464e+06
-1.73904e+06
-1.77288e+06
-1.80397e+06
-1.82452e+06
-1.80365e+06
-1.61853e+06
-803449
-89694.4
-109480
-138400
-171837
-207962
-245613
-284137
-323198
-362625
-402329
-442261
-482384
-522673
-563104
-603657
-644311
-685049
-725851
-766701
-807578
-848464
-889338
-930175
-970949
-1.01163e+06
-1.05218e+06
-1.09256e+06
-1.13272e+06
-1.17262e+06
-1.21218e+06
-1.25134e+06
-1.29002e+06
-1.32812e+06
-1.36553e+06
-1.40214e+06
-1.43782e+06
-1.47242e+06
-1.5058e+06
-1.53782e+06
-1.56832e+06
-1.59719e+06
-1.62433e+06
-1.6496e+06
-1.67273e+06
-1.69293e+06
-1.70788e+06
-1.70988e+06
-1.67042e+06
-1.4823e+06
-721209
-91749.1
-109269
-137892
-171354
-207482
-245076
-283504
-322447
-361739
-401296
-441067
-481017
-521117
-561343
-601670
-642076
-682540
-723038
-763547
-804044
-844502
-884895
-925188
-965343
-1.00532e+06
-1.04506e+06
-1.08452e+06
-1.12363e+06
-1.16229e+06
-1.20043e+06
-1.23793e+06
-1.27466e+06
-1.31048e+06
-1.34518e+06
-1.37858e+06
-1.41041e+06
-1.44038e+06
-1.46814e+06
-1.49328e+06
-1.5153e+06
-1.53357e+06
-1.54734e+06
-1.55556e+06
-1.55675e+06
-1.54824e+06
-1.52428e+06
-1.47012e+06
-1.34801e+06
-1.0805e+06
-630421
-93447.8
-109020
-137438
-170947
-207084
-244627
-282972
-321813
-360991
-400424
-440060
-479864
-519806
-559858
-599994
-640190
-680421
-720660
-760879
-801050
-841142
-881121
-920944
-960566
-999931
-1.03898e+06
-1.07763e+06
-1.11581e+06
-1.15339e+06
-1.19028e+06
-1.22631e+06
-1.26131e+06
-1.29507e+06
-1.32735e+06
-1.35783e+06
-1.38616e+06
-1.41187e+06
-1.43444e+06
-1.45319e+06
-1.46727e+06
-1.47563e+06
-1.47694e+06
-1.46958e+06
-1.45148e+06
-1.41972e+06
-1.36863e+06
-1.28451e+06
-1.13706e+06
-886774
-580778
-94572.7
-108848
-137132
-170681
-206827
-244339
-282629
-321403
-360509
-399861
-439410
-479120
-518958
-558897
-598910
-638969
-679048
-719118
-759148
-799106
-838958
-878665
-918179
-957449
-996410
-1.03499e+06
-1.07311e+06
-1.11067e+06
-1.14754e+06
-1.18358e+06
-1.21862e+06
-1.25246e+06
-1.28484e+06
-1.31546e+06
-1.34395e+06
-1.36987e+06
-1.39265e+06
-1.41162e+06
-1.42592e+06
-1.43447e+06
-1.43592e+06
-1.42864e+06
-1.41072e+06
-1.38015e+06
-1.33471e+06
-1.27057e+06
-1.17761e+06
-1.03321e+06
-813828
-571478
-94965.3
-108789
-137024
-170588
-206738
-244239
-282511
-321262
-360342
-399667
-439186
-478863
-518666
-558566
-598536
-638547
-678574
-718585
-758550
-798434
-838202
-877815
-917222
-956368
-995189
-1.03361e+06
-1.07154e+06
-1.10888e+06
-1.1455e+06
-1.18125e+06
-1.21594e+06
-1.24936e+06
-1.28126e+06
-1.31129e+06
-1.33908e+06
-1.36414e+06
-1.38588e+06
-1.40357e+06
-1.41627e+06
-1.42284e+06
-1.42183e+06
-1.4115e+06
-1.38989e+06
-1.35508e+06
-1.3053e+06
-1.23768e+06
-1.14377e+06
-1.00352e+06
-796433
-570938
-94574.4
-108848
-137132
-170680
-206827
-244339
-282629
-321403
-360509
-399862
-439411
-479120
-518959
-558898
-598910
-638969
-679048
-719118
-759149
-799107
-838959
-878665
-918180
-957449
-996411
-1.03499e+06
-1.07311e+06
-1.11067e+06
-1.14754e+06
-1.18358e+06
-1.21862e+06
-1.25246e+06
-1.28484e+06
-1.31546e+06
-1.34395e+06
-1.36987e+06
-1.39265e+06
-1.41162e+06
-1.42592e+06
-1.43447e+06
-1.43592e+06
-1.42864e+06
-1.41072e+06
-1.38015e+06
-1.33471e+06
-1.27057e+06
-1.17761e+06
-1.03321e+06
-813828
-571479
-93450.9
-109019
-137437
-170946
-207084
-244628
-282973
-321813
-360992
-400425
-440062
-479865
-519807
-559859
-599995
-640190
-680421
-720661
-760881
-801052
-841144
-881122
-920946
-960567
-999932
-1.03898e+06
-1.07763e+06
-1.11581e+06
-1.1534e+06
-1.19028e+06
-1.22631e+06
-1.26131e+06
-1.29508e+06
-1.32735e+06
-1.35783e+06
-1.38616e+06
-1.41187e+06
-1.43444e+06
-1.45319e+06
-1.46727e+06
-1.47563e+06
-1.47694e+06
-1.46958e+06
-1.45148e+06
-1.41972e+06
-1.36863e+06
-1.28451e+06
-1.13706e+06
-886772
-580778
-91753.1
-109269
-137891
-171353
-207482
-245077
-283505
-322447
-361740
-401297
-441068
-481018
-521118
-561344
-601671
-642077
-682541
-723039
-763549
-804046
-844504
-884897
-925189
-965345
-1.00532e+06
-1.04506e+06
-1.08452e+06
-1.12363e+06
-1.16229e+06
-1.20043e+06
-1.23793e+06
-1.27466e+06
-1.31048e+06
-1.34519e+06
-1.37858e+06
-1.41041e+06
-1.44038e+06
-1.46814e+06
-1.49328e+06
-1.5153e+06
-1.53357e+06
-1.54734e+06
-1.55557e+06
-1.55675e+06
-1.54824e+06
-1.52428e+06
-1.47012e+06
-1.34801e+06
-1.0805e+06
-630421
-89698.8
-109480
-138399
-171836
-207962
-245614
-284138
-323198
-362626
-402331
-442262
-482386
-522674
-563106
-603658
-644312
-685050
-725853
-766703
-807580
-848466
-889340
-930177
-970951
-1.01163e+06
-1.05218e+06
-1.09256e+06
-1.13273e+06
-1.17262e+06
-1.21218e+06
-1.25134e+06
-1.29002e+06
-1.32812e+06
-1.36553e+06
-1.40214e+06
-1.43782e+06
-1.47242e+06
-1.5058e+06
-1.53782e+06
-1.56832e+06
-1.59719e+06
-1.62433e+06
-1.6496e+06
-1.67273e+06
-1.69293e+06
-1.70789e+06
-1.70988e+06
-1.67042e+06
-1.48229e+06
-721209
-90556.4
-109434
-138214
-171644
-207764
-245389
-283873
-322885
-362256
-401899
-441763
-481814
-522024
-562369
-602828
-643379
-684003
-724679
-765388
-806108
-846818
-887493
-928107
-968627
-1.00902e+06
-1.04924e+06
-1.08924e+06
-1.12898e+06
-1.16837e+06
-1.20736e+06
-1.24585e+06
-1.28374e+06
-1.32092e+06
-1.35725e+06
-1.39257e+06
-1.42671e+06
-1.45948e+06
-1.49064e+06
-1.51995e+06
-1.54715e+06
-1.57197e+06
-1.59415e+06
-1.61343e+06
-1.62954e+06
-1.64205e+06
-1.64962e+06
-1.64633e+06
-1.60707e+06
-1.43099e+06
-695347
-92792.4
-109122
-137629
-171116
-207247
-244810
-283190
-322072
-361297
-400781
-440472
-480336
-520342
-560465
-600679
-640961
-681288
-721633
-761971
-802277
-842520
-882669
-922686
-962528
-1.00215e+06
-1.04148e+06
-1.08047e+06
-1.11903e+06
-1.15707e+06
-1.19447e+06
-1.23112e+06
-1.26684e+06
-1.30146e+06
-1.33476e+06
-1.36646e+06
-1.39626e+06
-1.42377e+06
-1.44854e+06
-1.47e+06
-1.48747e+06
-1.50011e+06
-1.50689e+06
-1.50658e+06
-1.49763e+06
-1.4779e+06
-1.44294e+06
-1.38066e+06
-1.25901e+06
-1.0131e+06
-611008
-94571
-108849
-137132
-170681
-206827
-244338
-282629
-321403
-360508
-399861
-439410
-479119
-518958
-558897
-598910
-638969
-679048
-719117
-759148
-799106
-838958
-878664
-918179
-957448
-996410
-1.03499e+06
-1.07311e+06
-1.11067e+06
-1.14754e+06
-1.18358e+06
-1.21862e+06
-1.25246e+06
-1.28484e+06
-1.31546e+06
-1.34395e+06
-1.36987e+06
-1.39265e+06
-1.41162e+06
-1.42592e+06
-1.43447e+06
-1.43592e+06
-1.42864e+06
-1.41072e+06
-1.38015e+06
-1.33471e+06
-1.27057e+06
-1.17762e+06
-1.03321e+06
-813830
-571479
-95726
-108675
-136803
-170396
-206556
-244034
-282267
-320971
-359999
-399267
-438725
-478334
-518064
-557884
-597766
-637680
-677598
-717488
-757317
-797048
-836644
-876061
-915245
-954137
-992666
-1.03075e+06
-1.0683e+06
-1.10518e+06
-1.14128e+06
-1.1764e+06
-1.21037e+06
-1.24294e+06
-1.2738e+06
-1.30261e+06
-1.32892e+06
-1.35218e+06
-1.37171e+06
-1.38668e+06
-1.39602e+06
-1.39837e+06
-1.39208e+06
-1.37513e+06
-1.34537e+06
-1.30089e+06
-1.2404e+06
-1.16232e+06
-1.06074e+06
-921645
-738753
-568459
-96126.9
-108616
-136688
-170297
-206462
-243930
-282142
-320823
-359824
-399063
-438488
-478063
-517755
-557535
-597371
-637235
-677097
-716925
-756684
-796337
-835844
-875159
-914229
-952990
-991368
-1.02928e+06
-1.06662e+06
-1.10328e+06
-1.1391e+06
-1.1739e+06
-1.20749e+06
-1.23961e+06
-1.26994e+06
-1.29811e+06
-1.32364e+06
-1.34596e+06
-1.36434e+06
-1.37788e+06
-1.38544e+06
-1.38559e+06
-1.37653e+06
-1.35616e+06
-1.32226e+06
-1.27306e+06
-1.20781e+06
-1.12602e+06
-1.02366e+06
-889580
-720774
-569878
-95727.9
-108674
-136803
-170396
-206556
-244035
-282267
-320972
-359999
-399268
-438725
-478335
-518064
-557885
-597766
-637680
-677598
-717489
-757318
-797049
-836645
-876061
-915246
-954138
-992667
-1.03075e+06
-1.0683e+06
-1.10519e+06
-1.14128e+06
-1.1764e+06
-1.21037e+06
-1.24294e+06
-1.2738e+06
-1.30261e+06
-1.32892e+06
-1.35218e+06
-1.37171e+06
-1.38668e+06
-1.39602e+06
-1.39837e+06
-1.39208e+06
-1.37513e+06
-1.34537e+06
-1.30089e+06
-1.2404e+06
-1.16232e+06
-1.06074e+06
-921644
-738752
-568459
-94574.4
-108848
-137132
-170680
-206827
-244339
-282629
-321404
-360509
-399862
-439411
-479120
-518959
-558898
-598910
-638969
-679048
-719119
-759149
-799107
-838959
-878666
-918181
-957450
-996411
-1.03499e+06
-1.07311e+06
-1.11067e+06
-1.14754e+06
-1.18358e+06
-1.21862e+06
-1.25246e+06
-1.28484e+06
-1.31546e+06
-1.34395e+06
-1.36987e+06
-1.39265e+06
-1.41162e+06
-1.42592e+06
-1.43447e+06
-1.43592e+06
-1.42864e+06
-1.41072e+06
-1.38015e+06
-1.33471e+06
-1.27057e+06
-1.17761e+06
-1.03321e+06
-813830
-571480
-92796.8
-109121
-137628
-171116
-207247
-244811
-283190
-322073
-361298
-400782
-440474
-480337
-520343
-560466
-600680
-640962
-681289
-721634
-761973
-802279
-842522
-882671
-922688
-962530
-1.00215e+06
-1.04148e+06
-1.08047e+06
-1.11903e+06
-1.15707e+06
-1.19447e+06
-1.23112e+06
-1.26684e+06
-1.30146e+06
-1.33476e+06
-1.36646e+06
-1.39626e+06
-1.42377e+06
-1.44854e+06
-1.47e+06
-1.48747e+06
-1.50011e+06
-1.5069e+06
-1.50658e+06
-1.49763e+06
-1.4779e+06
-1.44294e+06
-1.38066e+06
-1.259e+06
-1.0131e+06
-611008
-90561.1
-109434
-138213
-171644
-207763
-245389
-283874
-322886
-362257
-401900
-441765
-481815
-522025
-562371
-602829
-643380
-684004
-724681
-765390
-806110
-846820
-887496
-928109
-968629
-1.00902e+06
-1.04924e+06
-1.08925e+06
-1.12898e+06
-1.16837e+06
-1.20736e+06
-1.24585e+06
-1.28374e+06
-1.32092e+06
-1.35725e+06
-1.39257e+06
-1.42671e+06
-1.45948e+06
-1.49064e+06
-1.51995e+06
-1.54715e+06
-1.57197e+06
-1.59415e+06
-1.61343e+06
-1.62954e+06
-1.64205e+06
-1.64962e+06
-1.64633e+06
-1.60706e+06
-1.43098e+06
-695347
-90851.1
-109419
-138148
-171577
-207695
-245312
-283783
-322778
-362130
-401752
-441593
-481619
-521802
-562119
-602545
-643061
-683646
-724279
-764940
-805606
-846255
-886863
-927399
-967832
-1.00812e+06
-1.04823e+06
-1.08811e+06
-1.12769e+06
-1.16692e+06
-1.2057e+06
-1.24396e+06
-1.28158e+06
-1.31844e+06
-1.35439e+06
-1.38927e+06
-1.42287e+06
-1.45499e+06
-1.48537e+06
-1.51373e+06
-1.53977e+06
-1.56317e+06
-1.58362e+06
-1.60083e+06
-1.61459e+06
-1.62472e+06
-1.63039e+06
-1.62654e+06
-1.58919e+06
-1.41844e+06
-689752
-93154.2
-109071
-137536
-171034
-207166
-244719
-283081
-321943
-361146
-400604
-440268
-480101
-520075
-560163
-600338
-640578
-680856
-721149
-761428
-801667
-841836
-881900
-921822
-961555
-1.00105e+06
-1.04024e+06
-1.07907e+06
-1.11744e+06
-1.15525e+06
-1.1924e+06
-1.22875e+06
-1.26412e+06
-1.29832e+06
-1.33112e+06
-1.36223e+06
-1.3913e+06
-1.41794e+06
-1.44164e+06
-1.46179e+06
-1.47764e+06
-1.48828e+06
-1.49259e+06
-1.48928e+06
-1.47691e+06
-1.45364e+06
-1.41577e+06
-1.35249e+06
-1.23377e+06
-997011
-607435
-94961.8
-108789
-137025
-170588
-206738
-244239
-282510
-321262
-360342
-399667
-439186
-478862
-518665
-558566
-598535
-638547
-678573
-718585
-758549
-798433
-838202
-877814
-917221
-956368
-995189
-1.03361e+06
-1.07154e+06
-1.10888e+06
-1.1455e+06
-1.18125e+06
-1.21594e+06
-1.24936e+06
-1.28125e+06
-1.31129e+06
-1.33908e+06
-1.36414e+06
-1.38588e+06
-1.40357e+06
-1.41627e+06
-1.42284e+06
-1.42183e+06
-1.4115e+06
-1.38988e+06
-1.35508e+06
-1.3053e+06
-1.23768e+06
-1.14377e+06
-1.00353e+06
-796439
-570940
-96125
-108616
-136688
-170297
-206462
-243930
-282142
-320823
-359823
-399062
-438488
-478063
-517755
-557534
-597371
-637235
-677097
-716925
-756684
-796337
-835844
-875159
-914229
-952989
-991368
-1.02928e+06
-1.06662e+06
-1.10328e+06
-1.1391e+06
-1.1739e+06
-1.20749e+06
-1.23961e+06
-1.26994e+06
-1.29811e+06
-1.32364e+06
-1.34596e+06
-1.36434e+06
-1.37788e+06
-1.38544e+06
-1.38559e+06
-1.37653e+06
-1.35616e+06
-1.32226e+06
-1.27306e+06
-1.20781e+06
-1.12602e+06
-1.02367e+06
-889583
-720776
-569878
-96527.1
-108558
-136571
-170196
-206367
-243823
-282015
-320671
-359645
-398854
-438248
-477788
-517441
-557179
-596969
-636782
-676587
-716352
-756040
-795612
-835028
-874241
-913193
-951819
-990043
-1.02778e+06
-1.06491e+06
-1.10133e+06
-1.13687e+06
-1.17135e+06
-1.20455e+06
-1.2362e+06
-1.26599e+06
-1.29349e+06
-1.31822e+06
-1.33957e+06
-1.35676e+06
-1.36882e+06
-1.37455e+06
-1.3724e+06
-1.36048e+06
-1.33655e+06
-1.29837e+06
-1.24429e+06
-1.17414e+06
-1.0886e+06
-985557
-856779
-702614
-571923
-96126.9
-108616
-136688
-170297
-206462
-243930
-282142
-320823
-359824
-399063
-438489
-478064
-517756
-557535
-597371
-637235
-677097
-716925
-756685
-796338
-835844
-875160
-914230
-952990
-991368
-1.02928e+06
-1.06662e+06
-1.10328e+06
-1.1391e+06
-1.1739e+06
-1.20749e+06
-1.23961e+06
-1.26994e+06
-1.29811e+06
-1.32364e+06
-1.34596e+06
-1.36434e+06
-1.37788e+06
-1.38544e+06
-1.38559e+06
-1.37653e+06
-1.35616e+06
-1.32226e+06
-1.27306e+06
-1.20781e+06
-1.12602e+06
-1.02367e+06
-889582
-720776
-569879
-94965.3
-108789
-137024
-170588
-206738
-244239
-282511
-321262
-360342
-399668
-439187
-478863
-518666
-558566
-598536
-638548
-678574
-718586
-758550
-798435
-838203
-877816
-917223
-956369
-995190
-1.03361e+06
-1.07155e+06
-1.10888e+06
-1.1455e+06
-1.18125e+06
-1.21594e+06
-1.24936e+06
-1.28126e+06
-1.31129e+06
-1.33908e+06
-1.36414e+06
-1.38588e+06
-1.40357e+06
-1.41627e+06
-1.42284e+06
-1.42183e+06
-1.4115e+06
-1.38989e+06
-1.35508e+06
-1.3053e+06
-1.23768e+06
-1.14377e+06
-1.00352e+06
-796438
-570940
-93158.7
-109070
-137535
-171033
-207166
-244720
-283082
-321944
-361146
-400605
-440269
-480102
-520076
-560164
-600339
-640578
-680857
-721150
-761430
-801669
-841838
-881903
-921824
-961557
-1.00105e+06
-1.04024e+06
-1.07907e+06
-1.11744e+06
-1.15526e+06
-1.1924e+06
-1.22875e+06
-1.26412e+06
-1.29832e+06
-1.33112e+06
-1.36223e+06
-1.3913e+06
-1.41794e+06
-1.44164e+06
-1.46179e+06
-1.47764e+06
-1.48828e+06
-1.49259e+06
-1.48928e+06
-1.47691e+06
-1.45364e+06
-1.41577e+06
-1.35249e+06
-1.23377e+06
-997010
-607436
-90855.9
-109419
-138147
-171576
-207695
-245312
-283784
-322779
-362131
-401753
-441595
-481621
-521804
-562120
-602546
-643062
-683647
-724281
-764942
-805608
-846258
-886865
-927402
-967834
-1.00813e+06
-1.04823e+06
-1.08811e+06
-1.12769e+06
-1.16692e+06
-1.2057e+06
-1.24396e+06
-1.28158e+06
-1.31844e+06
-1.35439e+06
-1.38927e+06
-1.42288e+06
-1.45499e+06
-1.48537e+06
-1.51373e+06
-1.53977e+06
-1.56318e+06
-1.58362e+06
-1.60083e+06
-1.61459e+06
-1.62472e+06
-1.63039e+06
-1.62654e+06
-1.58919e+06
-1.41843e+06
-689751
-90555.7
-109434
-138214
-171644
-207764
-245389
-283873
-322885
-362256
-401899
-441763
-481814
-522024
-562369
-602828
-643379
-684003
-724679
-765388
-806108
-846818
-887493
-928106
-968627
-1.00902e+06
-1.04924e+06
-1.08924e+06
-1.12898e+06
-1.16837e+06
-1.20736e+06
-1.24585e+06
-1.28374e+06
-1.32092e+06
-1.35725e+06
-1.39257e+06
-1.42671e+06
-1.45948e+06
-1.49064e+06
-1.51995e+06
-1.54715e+06
-1.57197e+06
-1.59415e+06
-1.61343e+06
-1.62954e+06
-1.64206e+06
-1.64962e+06
-1.64634e+06
-1.60707e+06
-1.43098e+06
-695345
-92791.3
-109122
-137629
-171116
-207247
-244811
-283190
-322072
-361298
-400781
-440472
-480336
-520342
-560465
-600680
-640961
-681288
-721633
-761971
-802277
-842520
-882669
-922686
-962528
-1.00215e+06
-1.04148e+06
-1.08047e+06
-1.11903e+06
-1.15707e+06
-1.19447e+06
-1.23112e+06
-1.26684e+06
-1.30146e+06
-1.33476e+06
-1.36646e+06
-1.39626e+06
-1.42377e+06
-1.44854e+06
-1.47e+06
-1.48747e+06
-1.50011e+06
-1.5069e+06
-1.50658e+06
-1.49763e+06
-1.47791e+06
-1.44295e+06
-1.38066e+06
-1.25901e+06
-1.0131e+06
-611009
-94569.5
-108849
-137133
-170681
-206827
-244338
-282629
-321403
-360508
-399861
-439410
-479120
-518958
-558897
-598910
-638969
-679048
-719117
-759148
-799106
-838958
-878664
-918179
-957448
-996410
-1.03499e+06
-1.07311e+06
-1.11067e+06
-1.14754e+06
-1.18358e+06
-1.21862e+06
-1.25246e+06
-1.28484e+06
-1.31546e+06
-1.34395e+06
-1.36987e+06
-1.39265e+06
-1.41162e+06
-1.42592e+06
-1.43447e+06
-1.43592e+06
-1.42864e+06
-1.41072e+06
-1.38015e+06
-1.33471e+06
-1.27057e+06
-1.17762e+06
-1.03322e+06
-813833
-571480
-95724.3
-108675
-136803
-170396
-206556
-244034
-282267
-320972
-359999
-399267
-438725
-478334
-518064
-557884
-597766
-637680
-677598
-717488
-757317
-797048
-836644
-876061
-915245
-954137
-992667
-1.03075e+06
-1.0683e+06
-1.10519e+06
-1.14128e+06
-1.1764e+06
-1.21037e+06
-1.24294e+06
-1.2738e+06
-1.30261e+06
-1.32892e+06
-1.35218e+06
-1.37171e+06
-1.38668e+06
-1.39602e+06
-1.39837e+06
-1.39208e+06
-1.37513e+06
-1.34537e+06
-1.30089e+06
-1.24041e+06
-1.16232e+06
-1.06074e+06
-921648
-738754
-568459
-96125.1
-108616
-136688
-170297
-206462
-243930
-282142
-320823
-359824
-399063
-438488
-478063
-517755
-557535
-597371
-637235
-677097
-716925
-756684
-796337
-835844
-875160
-914229
-952990
-991368
-1.02928e+06
-1.06662e+06
-1.10328e+06
-1.1391e+06
-1.1739e+06
-1.20749e+06
-1.23961e+06
-1.26994e+06
-1.29811e+06
-1.32364e+06
-1.34596e+06
-1.36434e+06
-1.37788e+06
-1.38545e+06
-1.38559e+06
-1.37653e+06
-1.35616e+06
-1.32226e+06
-1.27307e+06
-1.20781e+06
-1.12603e+06
-1.02367e+06
-889583
-720777
-569880
-95726.3
-108675
-136803
-170396
-206556
-244035
-282267
-320972
-359999
-399268
-438725
-478335
-518064
-557885
-597766
-637680
-677598
-717489
-757318
-797049
-836645
-876062
-915246
-954138
-992667
-1.03075e+06
-1.0683e+06
-1.10519e+06
-1.14128e+06
-1.17641e+06
-1.21037e+06
-1.24294e+06
-1.2738e+06
-1.30261e+06
-1.32892e+06
-1.35218e+06
-1.37171e+06
-1.38668e+06
-1.39602e+06
-1.39837e+06
-1.39208e+06
-1.37513e+06
-1.34537e+06
-1.30089e+06
-1.24041e+06
-1.16232e+06
-1.06074e+06
-921647
-738756
-568460
-94573
-108848
-137132
-170681
-206827
-244339
-282629
-321404
-360509
-399862
-439411
-479120
-518959
-558898
-598910
-638969
-679048
-719119
-759149
-799107
-838959
-878666
-918181
-957450
-996411
-1.03499e+06
-1.07312e+06
-1.11067e+06
-1.14754e+06
-1.18358e+06
-1.21862e+06
-1.25246e+06
-1.28484e+06
-1.31546e+06
-1.34395e+06
-1.36987e+06
-1.39265e+06
-1.41162e+06
-1.42592e+06
-1.43447e+06
-1.43592e+06
-1.42864e+06
-1.41072e+06
-1.38015e+06
-1.33471e+06
-1.27057e+06
-1.17762e+06
-1.03321e+06
-813832
-571480
-92795.7
-109121
-137628
-171116
-207247
-244811
-283190
-322073
-361298
-400782
-440474
-480337
-520343
-560466
-600680
-640962
-681289
-721634
-761973
-802279
-842522
-882671
-922688
-962530
-1.00215e+06
-1.04148e+06
-1.08047e+06
-1.11903e+06
-1.15707e+06
-1.19447e+06
-1.23112e+06
-1.26684e+06
-1.30146e+06
-1.33476e+06
-1.36646e+06
-1.39626e+06
-1.42377e+06
-1.44854e+06
-1.47e+06
-1.48747e+06
-1.50011e+06
-1.5069e+06
-1.50658e+06
-1.49763e+06
-1.47791e+06
-1.44295e+06
-1.38066e+06
-1.259e+06
-1.0131e+06
-611009
-90560.4
-109434
-138213
-171644
-207764
-245389
-283874
-322886
-362257
-401900
-441764
-481815
-522025
-562370
-602829
-643380
-684004
-724681
-765390
-806110
-846820
-887496
-928109
-968629
-1.00902e+06
-1.04924e+06
-1.08925e+06
-1.12898e+06
-1.16838e+06
-1.20736e+06
-1.24585e+06
-1.28374e+06
-1.32092e+06
-1.35725e+06
-1.39257e+06
-1.42671e+06
-1.45948e+06
-1.49064e+06
-1.51995e+06
-1.54715e+06
-1.57197e+06
-1.59415e+06
-1.61343e+06
-1.62954e+06
-1.64206e+06
-1.64962e+06
-1.64633e+06
-1.60706e+06
-1.43098e+06
-695347
-89693.1
-109480
-138400
-171836
-207962
-245613
-284137
-323198
-362625
-402330
-442261
-482385
-522673
-563105
-603657
-644311
-685049
-725851
-766701
-807578
-848464
-889338
-930175
-970949
-1.01163e+06
-1.05218e+06
-1.09256e+06
-1.13272e+06
-1.17262e+06
-1.21218e+06
-1.25134e+06
-1.29002e+06
-1.32812e+06
-1.36553e+06
-1.40214e+06
-1.43782e+06
-1.47242e+06
-1.5058e+06
-1.53782e+06
-1.56832e+06
-1.59719e+06
-1.62433e+06
-1.6496e+06
-1.67273e+06
-1.69294e+06
-1.70789e+06
-1.70988e+06
-1.67042e+06
-1.4823e+06
-721210
-91747
-109269
-137892
-171353
-207482
-245076
-283505
-322447
-361739
-401296
-441067
-481017
-521118
-561343
-601670
-642076
-682540
-723038
-763547
-804044
-844502
-884895
-925187
-965343
-1.00532e+06
-1.04506e+06
-1.08452e+06
-1.12363e+06
-1.16229e+06
-1.20043e+06
-1.23793e+06
-1.27467e+06
-1.31048e+06
-1.34519e+06
-1.37858e+06
-1.41041e+06
-1.44038e+06
-1.46814e+06
-1.49328e+06
-1.51529e+06
-1.53357e+06
-1.54734e+06
-1.55557e+06
-1.55675e+06
-1.54825e+06
-1.52428e+06
-1.47013e+06
-1.34801e+06
-1.0805e+06
-630421
-93445.1
-109020
-137438
-170947
-207084
-244628
-282972
-321813
-360992
-400424
-440061
-479865