/*--------------------------------*- C++ -*----------------------------------*\
| =========                 |                                                 |
| \\      /  F ield         | OpenFOAM Extend Project: Open Source CFD        |
|  \\    /   O peration     | Version:  1.6-ext                               |
|   \\  /    A nd           | Web:      www.extend-project.de                 |
|    \\/     M anipulation  |                                                 |
\*---------------------------------------------------------------------------*/
FoamFile
{
    version     2.0;
    format      ascii;
    class       volScalarField;
    location    "0";
    object      p_w;
}
// * * * * * * * * * * * * * * * * * * * * * * * * * * * * * * * * * * * * * //

dimensions      [1 -1 -2 0 0 0 0];

internalField   uniform 0;

boundaryField
{
    structureTop
    {
              type            zeroGradient;
    }
    structureBottom
    {
        type            zeroGradient;
    }
 
    pile
    {
         type            externalPatchToPatchMapping; // externalPatchToPatchMapping(GBF）
         setAverage      off;
         value           uniform 0;
    }
    slabSide
    {
         type            externalPatchToPatchMapping; // externalPatchToPatchMapping(GBF）
         setAverage      off;
         value           uniform 0;
    }
    slabTop
    {
         type            externalPatchToPatchMapping; // externalPatchToPatchMapping(GBF）
         setAverage      off;
         value           uniform 0;
    }

    defaultFaces
    {
        type            zeroGradient;
    }
}

// ************************************************************************* //
